 Q-Chem 5.3, Q-Chem, Inc., Pleasanton, CA (2020)
 Q-Chem 5.3.1 for Intel X86 EM64T Linux

User input:
--------------------------------------------------------------
$molecule
0 1
C   -0.3112006   -1.7755123    0.0438120
C   -1.4226004   -2.6858260   -0.0208651
C   -0.5631930   -0.3689484    0.0508672
C   -1.9115372    0.1040099    0.0011853
C   -2.9981292   -0.8242588   -0.0625742
C   -2.7061387   -2.2324483   -0.0729420
C   -2.1834580    1.5059152    0.0169977
C   -3.5162721    1.9510063   -0.0323999
C   -4.5685884    1.0384577   -0.0964623
C   -4.3140443   -0.3338783   -0.1109350
C    0.5272995    0.5581968    0.1097786
C    0.2133166    1.9638718    0.1296992
C   -1.0739938    2.4133026    0.0863118
C    1.0161092   -2.2211525    0.1044458
C    2.0727860   -1.3150048    0.1619247
C    1.8560702    0.0663341    0.1552775
C    3.0205614    1.0506752    0.2255833
C    4.3782172    0.4200078    0.0005315
O    4.7020444    0.3678572   -1.3172159
O    5.1162848   -0.0005614    0.8661804
H   -1.2150919   -3.7536009   -0.0267507
H   -3.5364750   -2.9334188   -0.1213274
H   -3.7192353    3.0195460   -0.0199965
H   -5.5939328    1.3973419   -0.1345010
H   -5.1404513   -1.0396430   -0.1589284
H    1.0184350    2.6892972    0.1873674
H   -1.2780732    3.4816804    0.1045893
H    1.2213122   -3.2891770    0.1082649
H    3.0858840   -1.7019701    0.2219590
H    3.0530437    1.5267416    1.2129200
H    2.8900629    1.8371580   -0.5247446
H    5.5766629   -0.0608089   -1.3819852
$end

$rem
BASIS  =  6-31+G*
CIS_MOMENTS  =  1
CIS_N_ROOTS  =  7
CIS_STATE_DERIVATIVE  =  2
CIS_TRIPLETS  =  0
EXCHANGE  =  B3LYP
JOB_TYPE  =  Frequency
VIBMAN_PRINT = 4
$end

--------------------------------------------------------------

             Standard Nuclear Orientation (Angstroms)
    I     Atom           X                Y                Z
 ----------------------------------------------------------------
    1      C      -0.3112006158    -1.7755123046     0.0438120080
    2      C      -1.4226004194    -2.6858260003    -0.0208650903
    3      C      -0.5631930103    -0.3689484036     0.0508672051
    4      C      -1.9115372084     0.1040099016     0.0011853040
    5      C      -2.9981292121    -0.8242587942    -0.0625741942
    6      C      -2.7061387176    -2.2324482954    -0.0729419913
    7      C      -2.1834580029     1.5059152027     0.0169977011
    8      C      -3.5162721012     1.9510063078    -0.0323998999
    9      C      -4.5685884047     1.0384577118    -0.0964622982
   10      C      -4.3140443101    -0.3338782892    -0.1109349954
   11      C       0.5272994934     0.5581967923     0.1097786033
   12      C       0.2133165989     1.9638717935     0.1296992004
   13      C      -1.0739937994     2.4133025985     0.0863117994
   14      C       1.0161091825    -2.2211525097     0.1044458090
   15      C       2.0727859860    -1.3150048137     0.1619247073
   16      C       1.8560701914     0.0663340872     0.1552775045
   17      C       3.0205613953     1.0506751827     0.2255833026
   18      C       4.3782171928     0.4200077769     0.0005315040
   19      O       4.7020443928     0.3678571730    -1.3172158958
   20      O       5.1162847911    -0.0005614242     0.8661804050
   21      H      -1.2150919235    -3.7536009012    -0.0267506881
   22      H      -3.5364750203    -2.9334187923    -0.1213273900
   23      H      -3.7192352970     3.0195460087    -0.0199965021
   24      H      -5.5939328033     1.3973419158    -0.1345009990
   25      H      -5.1404513129    -1.0396429860    -0.1589283940
   26      H       1.0184350017     2.6892971905     0.1873673990
   27      H      -1.2780731952     3.4816803993     0.1045892972
   28      H       1.2213121783    -3.2891770105     0.1082649112
   29      H       3.0858839845    -1.7019701175     0.2219590082
   30      H       3.0530436970     1.5267415846     1.2129200016
   31      H       2.8900628984     1.8371579817    -0.5247445990
   32      H       5.5766628911    -0.0608089306    -1.3819851949
 ----------------------------------------------------------------

   15    -843.6799126313      5.24e-09  Convergence criterion met
 Total energy in the final basis set =     -843.6799126313

         TDDFT/TDA Excitation Energies
 ---------------------------------------------------

 Excited state   1: excitation energy (eV) =    3.7182
 Total energy for state  1:                  -843.54327281 au
    Multiplicity: Singlet
    Trans. Mom.: -0.0202 X   0.0389 Y  -0.0011 Z
    Strength   :     0.0001753880
    D(   67) --> V(    1) amplitude = -0.6808
    D(   68) --> V(    2) amplitude =  0.7288

 Excited state   2: excitation energy (eV) =    3.7756
 Total energy for state  2:                  -843.54116127 au
    Multiplicity: Singlet
    Trans. Mom.: -1.9587 X   0.5473 Y  -0.0755 Z
    Strength   :     0.3831330578
    D(   67) --> V(    2) amplitude =  0.3622
    D(   68) --> V(    1) amplitude =  0.9047

 Excited state   3: excitation energy (eV) =    4.2979
 Total energy for state  3:                  -843.52196642 au
    Multiplicity: Singlet
    Trans. Mom.:  0.1911 X  -0.1013 Y   0.0081 Z
    Strength   :     0.0049339982
    D(   66) --> V(    1) amplitude = -0.3246
    D(   68) --> V(    3) amplitude =  0.9333

 Excited state   4: excitation energy (eV) =    4.5916
 Total energy for state  4:                  -843.51117491 au
    Multiplicity: Singlet
    Trans. Mom.:  0.0359 X   0.1900 Y  -0.0368 Z
    Strength   :     0.0043585190
    D(   68) --> V(    4) amplitude =  0.9722

 Excited state   5: excitation energy (eV) =    4.6081
 Total energy for state  5:                  -843.51056876 au
    Multiplicity: Singlet
    Trans. Mom.: -0.0500 X  -0.0275 Y  -0.0058 Z
    Strength   :     0.0003716019
    D(   66) --> V(    1) amplitude =  0.9272
    D(   68) --> V(    3) amplitude =  0.3132

 Excited state   6: excitation energy (eV) =    4.7570
 Total energy for state  6:                  -843.50509788 au
    Multiplicity: Singlet
    Trans. Mom.:  0.6965 X   1.5807 Y   0.0569 Z
    Strength   :     0.3481201831
    D(   65) --> V(    3) amplitude =  0.2474
    D(   66) --> V(    6) amplitude =  0.2270
    D(   67) --> V(    1) amplitude =  0.6561
    D(   68) --> V(    2) amplitude =  0.6061

 Excited state   7: excitation energy (eV) =    4.9167
 Total energy for state  7:                  -843.49922792 au
    Multiplicity: Singlet
    Trans. Mom.: -0.0432 X  -0.2075 Y   0.0074 Z
    Strength   :     0.0054190760
    D(   65) --> V(    1) amplitude =  0.6105
    D(   68) --> V(    6) amplitude = -0.7517

 ---------------------------------------------------

                    Orbital Energies (a.u.)
 --------------------------------------------------------------

 Alpha MOs
 -- Occupied --
-19.2183 -19.1627 -10.3411 -10.2212 -10.2210 -10.2144 -10.2124 -10.2117
-10.2115 -10.2109 -10.2104 -10.2065 -10.2057 -10.2043 -10.2042 -10.2036
-10.2035 -10.2033 -10.2033 -10.2027  -1.1246  -1.0347  -0.9033  -0.8653
 -0.8423  -0.8167  -0.7922  -0.7641  -0.7549  -0.7388  -0.7125  -0.6463
 -0.6395  -0.6358  -0.6236  -0.6071  -0.5568  -0.5324  -0.5266  -0.5225
 -0.5052  -0.5001  -0.4872  -0.4837  -0.4549  -0.4521  -0.4433  -0.4419
 -0.4387  -0.4223  -0.4160  -0.4103  -0.4078  -0.4061  -0.3974  -0.3782
 -0.3725  -0.3680  -0.3504  -0.3407  -0.3393  -0.3296  -0.3062  -0.2947
 -0.2819  -0.2660  -0.2421  -0.2084

          Ground-State Mulliken Net Atomic Charges

     Atom                 Charge (a.u.)
  ----------------------------------------
      1 C                     0.732382
      2 C                    -0.182899
      3 C                    -0.319483
      4 C                    -0.097920
      5 C                     0.341224
      6 C                    -0.182209
      7 C                     0.269531
      8 C                    -0.245231
      9 C                    -0.476324
     10 C                    -0.249504
     11 C                     0.415652
     12 C                    -0.461237
     13 C                    -0.384276
     14 C                    -0.583136
     15 C                    -1.053596
     16 C                     1.259762
     17 C                    -0.518334
     18 C                    -0.002479
     19 O                    -0.523226
     20 O                    -0.387314
     21 H                     0.184387
     22 H                     0.184851
     23 H                     0.183407
     24 H                     0.182534
     25 H                     0.184526
     26 H                     0.180615
     27 H                     0.183822
     28 H                     0.188035
     29 H                     0.192558
     30 H                     0.258234
     31 H                     0.235833
     32 H                     0.489815
  ----------------------------------------
  Sum of atomic charges =     0.000000

                    Cartesian Multipole Moments
 -----------------------------------------------------------------
    Charge (ESU x 10^10)
                -0.0000
    Dipole Moment (Debye)
         X      -1.2728      Y       0.4210      Z      -1.2190
       Tot       1.8120
    Quadrupole Moments (Debye-Ang)
        XX    -108.7771     XY       0.7558     YY    -101.6685
        XZ      -8.6934     YZ       1.8722     ZZ    -124.1835

 Frequency:      -107.10                 -84.13                 -56.91
 Force Cnst:      0.0363                 0.0225                 0.0095
 Red. Mass:       5.3783                 5.3938                 4.9675
 IR Intens:        0.230                  0.405                  0.612
 Frequency:       -18.72                  88.24                 129.67
 Force Cnst:      0.0021                 0.0181                 0.0622
 Red. Mass:      10.1792                 3.9491                 6.2740
 IR Intens:        1.989                  1.776                  0.125
 Frequency:       171.85                 186.72                 200.85
 Force Cnst:      0.0780                 0.0838                 0.1581
 Red. Mass:       4.4838                 4.0810                 6.6534
 IR Intens:        0.887                  6.904                  0.609
 Frequency:       225.87                 329.66                 343.90
 Force Cnst:      0.1149                 0.2307                 0.3527
 Red. Mass:       3.8220                 3.6035                 5.0624
 IR Intens:        0.309                  5.977                118.317
 Frequency:       406.98                 427.04                 440.80
 Force Cnst:      0.2622                 0.8461                 0.4025
 Red. Mass:       2.6870                 7.8746                 3.5163
 IR Intens:        5.255                  2.878                  0.608
 Frequency:       445.39                 466.66                 474.82
 Force Cnst:      0.6591                 0.4909                 0.6355
 Red. Mass:       5.6393                 3.8258                 4.7844
 IR Intens:       20.400                  0.663                 10.214
 Frequency:       501.19                 514.49                 535.66
 Force Cnst:      0.4589                 0.8448                 0.7399
 Red. Mass:       3.1010                 5.4167                 4.3770
 IR Intens:        0.123                 62.103                  2.857
 Frequency:       546.46                 568.76                 592.33
 Force Cnst:      0.6205                 0.4984                 1.1258
 Red. Mass:       3.5270                 2.6151                 5.4462
 IR Intens:        3.291                119.552                 23.664
 Frequency:       628.48                 635.47                 679.33
 Force Cnst:      0.8381                 0.4948                 0.8018
 Red. Mass:       3.6012                 2.0795                 2.9487
 IR Intens:        5.316                 55.780                 36.522
 Frequency:       692.35                 707.56                 715.34
 Force Cnst:      0.9772                 2.0207                 0.5237
 Red. Mass:       3.4601                 6.8505                 1.7369
 IR Intens:       28.806                 14.530                  7.312
 Frequency:       738.60                 758.88                 771.60
 Force Cnst:      0.5873                 0.4830                 1.8049
 Red. Mass:       1.8272                 1.4235                 5.1454
 IR Intens:        2.988                 12.755                  0.743
 Frequency:       775.68                 791.98                 809.47
 Force Cnst:      0.6416                 1.5689                 1.8837
 Red. Mass:       1.8098                 4.2453                 4.8792
 IR Intens:       10.299                 78.731                 25.718
 Frequency:       823.87                 855.75                 878.59
 Force Cnst:      0.6243                 0.5993                 2.4877
 Red. Mass:       1.5611                 1.3891                 5.4700
 IR Intens:       99.320                  3.420                  4.042
 Frequency:       893.01                 911.48                 925.77
 Force Cnst:      0.6626                 1.3252                 0.8211
 Red. Mass:       1.4101                 2.7072                 1.6262
 IR Intens:        3.290                 15.507                  2.565
 Frequency:       945.75                 957.93                 959.67
 Force Cnst:      0.7324                 0.8592                 0.8958
 Red. Mass:       1.3898                 1.5892                 1.6508
 IR Intens:        0.662                 14.315                 13.241
 Frequency:       992.19                1068.01                1111.25
 Force Cnst:      2.7732                 2.5916                 1.6311
 Red. Mass:       4.7812                 3.8563                 2.2418
 IR Intens:       16.004                  4.081                 32.130
 Frequency:      1118.38                1144.81                1178.43
 Force Cnst:      1.3726                 1.2992                 1.1193
 Red. Mass:       1.8626                 1.6825                 1.3681
 IR Intens:       36.621                184.479                  8.949
 Frequency:      1183.06                1192.94                1215.48
 Force Cnst:      1.5593                 1.2039                 1.1566
 Red. Mass:       1.8910                 1.4358                 1.3287
 IR Intens:       23.558                 25.283                 36.821
 Frequency:      1238.20                1241.60                1259.21
 Force Cnst:      2.1878                 1.2225                 2.2958
 Red. Mass:       2.4220                 1.3460                 2.4574
 IR Intens:      127.918                118.235                 47.274
 Frequency:      1272.49                1284.29                1297.66
 Force Cnst:      1.8635                 2.0402                 1.7659
 Red. Mass:       1.9533                 2.0994                 1.7799
 IR Intens:        2.615                 34.302                  3.129
 Frequency:      1330.05                1350.56                1362.28
 Force Cnst:      2.2840                 4.1173                 3.6199
 Red. Mass:       2.1913                 3.8312                 3.3107
 IR Intens:      106.244                117.615                103.729
 Frequency:      1378.30                1425.61                1443.62
 Force Cnst:      2.8067                10.1206                 2.5120
 Red. Mass:       2.5076                 8.4519                 2.0458
 IR Intens:       34.686                 23.547                  5.053
 Frequency:      1459.01                1472.75                1483.70
 Force Cnst:      2.6377                 2.5754                 1.8223
 Red. Mass:       2.1031                 2.0153                 1.4050
 IR Intens:        3.766                  0.950                 10.861
 Frequency:      1498.99                1509.50                1517.80
 Force Cnst:      4.9988                 4.1486                 9.3174
 Red. Mass:       3.7759                 3.0902                 6.8647
 IR Intens:       62.054                 20.691                163.221
 Frequency:      1550.01                1578.38                1630.09
 Force Cnst:      4.3859                 5.7381                 8.4768
 Red. Mass:       3.0984                 3.9093                 5.4145
 IR Intens:       27.976                 10.149                 37.095
 Frequency:      1633.54                1669.01                1812.54
 Force Cnst:      8.5271                11.1038                18.4757
 Red. Mass:       5.4237                 6.7655                 9.5449
 IR Intens:       45.168                 49.809                434.337
 Frequency:      3047.56                3088.66                3176.35
 Force Cnst:      5.7960                 6.1942                 6.4525
 Red. Mass:       1.0592                 1.1020                 1.0855
 IR Intens:       36.248                 15.218                 30.419
 Frequency:      3177.50                3179.27                3183.11
 Force Cnst:      6.4648                 6.4719                 6.4986
 Red. Mass:       1.0868                 1.0867                 1.0886
 IR Intens:        3.578                 10.415                 32.772
 Frequency:      3185.41                3196.24                3205.16
 Force Cnst:      6.5174                 6.5943                 6.6315
 Red. Mass:       1.0902                 1.0956                 1.0956
 IR Intens:       13.290                 24.782                 44.873
 Frequency:      3207.93                3209.31                3677.75
 Force Cnst:      6.6242                 6.6296                 8.4814
 Red. Mass:       1.0925                 1.0925                 1.0643
 IR Intens:        3.357                 15.783                 88.180

 STANDARD THERMODYNAMIC QUANTITIES AT   298.15 K  AND     1.00 ATM

   This Molecule has  4 Imaginary Frequencies
   Zero point vibrational energy:      154.239 kcal/mol

   Atom    1 Element C  Has Mass   12.00000
   Atom    2 Element C  Has Mass   12.00000
   Atom    3 Element C  Has Mass   12.00000
   Atom    4 Element C  Has Mass   12.00000
   Atom    5 Element C  Has Mass   12.00000
   Atom    6 Element C  Has Mass   12.00000
   Atom    7 Element C  Has Mass   12.00000
   Atom    8 Element C  Has Mass   12.00000
   Atom    9 Element C  Has Mass   12.00000
   Atom   10 Element C  Has Mass   12.00000
   Atom   11 Element C  Has Mass   12.00000
   Atom   12 Element C  Has Mass   12.00000
   Atom   13 Element C  Has Mass   12.00000
   Atom   14 Element C  Has Mass   12.00000
   Atom   15 Element C  Has Mass   12.00000
   Atom   16 Element C  Has Mass   12.00000
   Atom   17 Element C  Has Mass   12.00000
   Atom   18 Element C  Has Mass   12.00000
   Atom   19 Element O  Has Mass   15.99491
   Atom   20 Element O  Has Mass   15.99491
   Atom   21 Element H  Has Mass    1.00783
   Atom   22 Element H  Has Mass    1.00783
   Atom   23 Element H  Has Mass    1.00783
   Atom   24 Element H  Has Mass    1.00783
   Atom   25 Element H  Has Mass    1.00783
   Atom   26 Element H  Has Mass    1.00783
   Atom   27 Element H  Has Mass    1.00783
   Atom   28 Element H  Has Mass    1.00783
   Atom   29 Element H  Has Mass    1.00783
   Atom   30 Element H  Has Mass    1.00783
   Atom   31 Element H  Has Mass    1.00783
   Atom   32 Element H  Has Mass    1.00783
   Molecular Mass:   260.083780 amu
   Principal axes and moments of inertia in amu*Bohr^2:
                             1           2           3
    Eigenvalues --     2209.60306  8491.96851 10374.28939
          X               1.00000    -0.00007    -0.00110
          Y               0.00007     1.00000     0.00278
          Z               0.00110    -0.00278     1.00000
   Rotational Symmetry Number is   1
   The Molecule is an Asymmetric Top
   Translational Enthalpy:        0.889 kcal/mol
   Rotational Enthalpy:           0.889 kcal/mol
   Vibrational Enthalpy:        160.116 kcal/mol
   gas constant (RT):             0.592 kcal/mol
   Translational Entropy:        42.567  cal/mol.K
   Rotational Entropy:           33.631  cal/mol.K
   Vibrational Entropy:          31.687  cal/mol.K

   Total Enthalpy:              162.485 kcal/mol
   Total Entropy:               107.885  cal/mol.K

 Total job time:  11001.38s(wall), 10973.80s(cpu)
        *  Thank you very much for using Q-Chem.  Have a nice day.  *
