 Q-Chem 5.3, Q-Chem, Inc., Pleasanton, CA (2020)
 Q-Chem 5.3.1 for Intel X86 EM64T Linux

User input:
--------------------------------------------------------------
$molecule
0 1
C   -0.3112006   -1.7755123    0.0438120
C   -1.4226004   -2.6858260   -0.0208651
C   -0.5631930   -0.3689484    0.0508672
C   -1.9115372    0.1040099    0.0011853
C   -2.9981292   -0.8242588   -0.0625742
C   -2.7061387   -2.2324483   -0.0729420
C   -2.1834580    1.5059152    0.0169977
C   -3.5162721    1.9510063   -0.0323999
C   -4.5685884    1.0384577   -0.0964623
C   -4.3140443   -0.3338783   -0.1109350
C    0.5272995    0.5581968    0.1097786
C    0.2133166    1.9638718    0.1296992
C   -1.0739938    2.4133026    0.0863118
C    1.0161092   -2.2211525    0.1044458
C    2.0727860   -1.3150048    0.1619247
C    1.8560702    0.0663341    0.1552775
C    3.0205614    1.0506752    0.2255833
C    4.3782172    0.4200078    0.0005315
O    4.7020444    0.3678572   -1.3172159
O    5.1162848   -0.0005614    0.8661804
H   -1.2150919   -3.7536009   -0.0267507
H   -3.5364750   -2.9334188   -0.1213274
H   -3.7192353    3.0195460   -0.0199965
H   -5.5939328    1.3973419   -0.1345010
H   -5.1404513   -1.0396430   -0.1589284
H    1.0184350    2.6892972    0.1873674
H   -1.2780732    3.4816804    0.1045893
H    1.2213122   -3.2891770    0.1082649
H    3.0858840   -1.7019701    0.2219590
H    3.0530437    1.5267416    1.2129200
H    2.8900629    1.8371580   -0.5247446
H    5.5766629   -0.0608089   -1.3819852
$end

$rem
BASIS  =  6-31+G*
CIS_N_ROOTS  =  10
CIS_STATE_DERIVATIVE  =  2
CIS_TRIPLETS  =  0
EXCHANGE  =  B3LYP
JOB_TYPE  =  Force
$end
--------------------------------------------------------------

             Standard Nuclear Orientation (Angstroms)
    I     Atom           X                Y                Z
 ----------------------------------------------------------------
    1      C      -0.3112006158    -1.7755123046     0.0438120080
    2      C      -1.4226004194    -2.6858260003    -0.0208650903
    3      C      -0.5631930103    -0.3689484036     0.0508672051
    4      C      -1.9115372084     0.1040099016     0.0011853040
    5      C      -2.9981292121    -0.8242587942    -0.0625741942
    6      C      -2.7061387176    -2.2324482954    -0.0729419913
    7      C      -2.1834580029     1.5059152027     0.0169977011
    8      C      -3.5162721012     1.9510063078    -0.0323998999
    9      C      -4.5685884047     1.0384577118    -0.0964622982
   10      C      -4.3140443101    -0.3338782892    -0.1109349954
   11      C       0.5272994934     0.5581967923     0.1097786033
   12      C       0.2133165989     1.9638717935     0.1296992004
   13      C      -1.0739937994     2.4133025985     0.0863117994
   14      C       1.0161091825    -2.2211525097     0.1044458090
   15      C       2.0727859860    -1.3150048137     0.1619247073
   16      C       1.8560701914     0.0663340872     0.1552775045
   17      C       3.0205613953     1.0506751827     0.2255833026
   18      C       4.3782171928     0.4200077769     0.0005315040
   19      O       4.7020443928     0.3678571730    -1.3172158958
   20      O       5.1162847911    -0.0005614242     0.8661804050
   21      H      -1.2150919235    -3.7536009012    -0.0267506881
   22      H      -3.5364750203    -2.9334187923    -0.1213273900
   23      H      -3.7192352970     3.0195460087    -0.0199965021
   24      H      -5.5939328033     1.3973419158    -0.1345009990
   25      H      -5.1404513129    -1.0396429860    -0.1589283940
   26      H       1.0184350017     2.6892971905     0.1873673990
   27      H      -1.2780731952     3.4816803993     0.1045892972
   28      H       1.2213121783    -3.2891770105     0.1082649112
   29      H       3.0858839845    -1.7019701175     0.2219590082
   30      H       3.0530436970     1.5267415846     1.2129200016
   31      H       2.8900628984     1.8371579817    -0.5247445990
   32      H       5.5766628911    -0.0608089306    -1.3819851949
 ----------------------------------------------------------------

   15    -843.6799126301      5.24e-09  Convergence criterion met
 Total energy in the final basis set =     -843.6799126301

         TDDFT/TDA Excitation Energies
 ---------------------------------------------------

 Excited state   1: excitation energy (eV) =    3.7182
 Total energy for state  1:                  -843.54327281 au
    Multiplicity: Singlet
    Trans. Mom.: -0.0202 X   0.0388 Y  -0.0012 Z
    Strength   :     0.0001748827
    D(   67) --> V(    1) amplitude = -0.6808
    D(   68) --> V(    2) amplitude =  0.7288

 Excited state   2: excitation energy (eV) =    3.7756
 Total energy for state  2:                  -843.54116127 au
    Multiplicity: Singlet
    Trans. Mom.: -1.9589 X   0.5473 Y  -0.0755 Z
    Strength   :     0.3831899094
    D(   67) --> V(    2) amplitude =  0.3622
    D(   68) --> V(    1) amplitude =  0.9048

 Excited state   3: excitation energy (eV) =    4.2979
 Total energy for state  3:                  -843.52196642 au
    Multiplicity: Singlet
    Trans. Mom.:  0.1910 X  -0.1013 Y   0.0080 Z
    Strength   :     0.0049300942
    D(   66) --> V(    1) amplitude = -0.3246
    D(   68) --> V(    3) amplitude =  0.9333

 Excited state   4: excitation energy (eV) =    4.5916
 Total energy for state  4:                  -843.51117491 au
    Multiplicity: Singlet
    Trans. Mom.:  0.0359 X   0.1901 Y  -0.0368 Z
    Strength   :     0.0043625548
    D(   68) --> V(    4) amplitude =  0.9722

 Excited state   5: excitation energy (eV) =    4.6081
 Total energy for state  5:                  -843.51056875 au
    Multiplicity: Singlet
    Trans. Mom.: -0.0502 X  -0.0276 Y  -0.0057 Z
    Strength   :     0.0003746872
    D(   66) --> V(    1) amplitude =  0.9272
    D(   68) --> V(    3) amplitude =  0.3132

 Excited state   6: excitation energy (eV) =    4.7570
 Total energy for state  6:                  -843.50509788 au
    Multiplicity: Singlet
    Trans. Mom.:  0.6965 X   1.5808 Y   0.0570 Z
    Strength   :     0.3481349572
    D(   65) --> V(    3) amplitude =  0.2474
    D(   66) --> V(    6) amplitude =  0.2271
    D(   67) --> V(    1) amplitude =  0.6561
    D(   68) --> V(    2) amplitude =  0.6061

 Excited state   7: excitation energy (eV) =    4.9167
 Total energy for state  7:                  -843.49922794 au
    Multiplicity: Singlet
    Trans. Mom.:  0.0432 X   0.2077 Y  -0.0072 Z
    Strength   :     0.0054290688
    D(   65) --> V(    1) amplitude = -0.6106
    D(   68) --> V(    6) amplitude =  0.7517

 Excited state   8: excitation energy (eV) =    4.9986
 Total energy for state  8:                  -843.49621684 au
    Multiplicity: Singlet
    Trans. Mom.: -0.0057 X   0.0954 Y   0.1062 Z
    Strength   :     0.0025007830
    D(   68) --> V(    5) amplitude =  0.9210
    D(   68) --> V(    7) amplitude = -0.3421

 Excited state   9: excitation energy (eV) =    5.1763
 Total energy for state  9:                  -843.48968557 au
    Multiplicity: Singlet
    Trans. Mom.: -0.1001 X  -0.1638 Y   0.0031 Z
    Strength   :     0.0046763418
    D(   66) --> V(    2) amplitude = -0.6156
    D(   67) --> V(    3) amplitude =  0.7330

 Excited state  10: excitation energy (eV) =    5.1837
 Total energy for state 10:                  -843.48941619 au
    Multiplicity: Singlet
    Trans. Mom.: -0.0287 X  -0.0935 Y  -0.0576 Z
    Strength   :     0.0016359199
    D(   68) --> V(    5) amplitude = -0.3267
    D(   68) --> V(    7) amplitude = -0.9009

 ---------------------------------------------------

                    Orbital Energies (a.u.)
 --------------------------------------------------------------

 Alpha MOs
 -- Occupied --
-19.2183 -19.1627 -10.3411 -10.2212 -10.2210 -10.2144 -10.2124 -10.2117
-10.2115 -10.2109 -10.2104 -10.2065 -10.2057 -10.2043 -10.2042 -10.2036
-10.2035 -10.2033 -10.2033 -10.2027  -1.1246  -1.0347  -0.9033  -0.8653
 -0.8423  -0.8167  -0.7922  -0.7641  -0.7549  -0.7388  -0.7125  -0.6463
 -0.6395  -0.6358  -0.6236  -0.6071  -0.5568  -0.5324  -0.5266  -0.5225
 -0.5052  -0.5001  -0.4872  -0.4837  -0.4549  -0.4521  -0.4433  -0.4419
 -0.4387  -0.4223  -0.4160  -0.4103  -0.4078  -0.4061  -0.3974  -0.3782
 -0.3725  -0.3680  -0.3504  -0.3407  -0.3393  -0.3296  -0.3062  -0.2947
 -0.2819  -0.2660  -0.2421  -0.2084

          Ground-State Mulliken Net Atomic Charges

     Atom                 Charge (a.u.)
  ----------------------------------------
      1 C                     0.732382
      2 C                    -0.182899
      3 C                    -0.319483
      4 C                    -0.097920
      5 C                     0.341224
      6 C                    -0.182209
      7 C                     0.269531
      8 C                    -0.245231
      9 C                    -0.476324
     10 C                    -0.249504
     11 C                     0.415652
     12 C                    -0.461237
     13 C                    -0.384276
     14 C                    -0.583136
     15 C                    -1.053596
     16 C                     1.259762
     17 C                    -0.518334
     18 C                    -0.002479
     19 O                    -0.523226
     20 O                    -0.387314
     21 H                     0.184387
     22 H                     0.184851
     23 H                     0.183407
     24 H                     0.182534
     25 H                     0.184526
     26 H                     0.180615
     27 H                     0.183822
     28 H                     0.188035
     29 H                     0.192558
     30 H                     0.258234
     31 H                     0.235833
     32 H                     0.489815
  ----------------------------------------
  Sum of atomic charges =     0.000000

                    Cartesian Multipole Moments
 -----------------------------------------------------------------
    Charge (ESU x 10^10)
                -0.0000
    Dipole Moment (Debye)
         X      -1.2728      Y       0.4210      Z      -1.2190
       Tot       1.8120
    Quadrupole Moments (Debye-Ang)
        XX    -108.7771     XY       0.7558     YY    -101.6685
        XZ      -8.6934     YZ       1.8722     ZZ    -124.1835

 Total job time:  1720.18s(wall), 1714.02s(cpu)
        *  Thank you very much for using Q-Chem.  Have a nice day.  *
