 Q-Chem 5.3, Q-Chem, Inc., Pleasanton, CA (2020)
 Q-Chem 5.3.1 for Intel X86 EM64T Linux

User input:
--------------------------------------------------------------
$molecule
0 1
C    1.1186370   -1.5734340   -0.8182940
C    1.0066290   -2.9072700   -1.3559520
C    0.0065760   -1.0000620   -0.1575810
C   -1.2031530   -1.7537250   -0.0331480
C   -1.2852510   -3.0608150   -0.5706040
C   -0.1327680   -3.6126510   -1.2399440
C   -2.3213600   -1.1974890    0.6284190
C   -3.4936150   -1.9457360    0.7416060
C   -3.5663560   -3.2241750    0.2125160
C   -2.4729580   -3.7778290   -0.4378420
C    0.0903990    0.3084160    0.3777810
C   -1.0697370    0.8425470    1.0516250
C   -2.2077350    0.1314950    1.1686650
C    2.2893020   -0.8317790   -0.9263690
C    2.3665610    0.4482400   -0.4017370
C    1.2862380    1.0346690    0.2443970
C    1.3789800    2.4320530    0.8286900
C    2.6387200    3.1574360    0.4400750
O    2.5391290    3.7503200   -0.7620720
O    3.6448710    3.2116250    1.1050410
H    1.8692370   -3.3305250   -1.8597150
H   -0.2059210   -4.6150470   -1.6484480
H   -4.3497940   -1.5156030    1.2503890
H   -4.4821850   -3.7960600    0.3078490
H   -2.5347040   -4.7796340   -0.8497120
H   -1.0243730    1.8371120    1.4779640
H   -3.0660220    0.5543120    1.6801730
H    3.1499140   -1.2623290   -1.4267060
H    3.2998520    0.9920220   -0.5000420
H    1.3594970    2.3855170    1.9183370
H    0.5301120    3.0310350    0.4960340
H    3.3909790    4.1772520   -0.9413050
$end

$rem
BASIS  =  6-31+G*
JOB_TYPE  =  Optimization
METHOD  =  B3LYP
SYM_IGNORE = True
$end

--------------------------------------------------------------

   15    -843.6777566046      4.48e-09  Convergence criterion met
 Total energy in the final basis set =     -843.6777566046
   12    -843.6800629260      7.46e-09  Convergence criterion met
 Total energy in the final basis set =     -843.6800629260
   11    -843.6800896678      8.95e-09  Convergence criterion met
 Total energy in the final basis set =     -843.6800896678
   11    -843.6801624715      5.90e-09  Convergence criterion met
 Total energy in the final basis set =     -843.6801624715
   10    -843.6801913159      7.83e-09  Convergence criterion met
 Total energy in the final basis set =     -843.6801913159
   10    -843.6801941752      4.25e-09  Convergence criterion met
 Total energy in the final basis set =     -843.6801941752
   11    -843.6801971385      3.78e-09  Convergence criterion met
 Total energy in the final basis set =     -843.6801971385
   11    -843.6802000617      6.93e-09  Convergence criterion met
 Total energy in the final basis set =     -843.6802000617
    9    -843.6802005622      5.88e-09  Convergence criterion met
 Total energy in the final basis set =     -843.6802005622
 Final energy is   -843.680200562246
 **  OPTIMIZATION CONVERGED  **
 Total job time:  3223.68s(wall), 3213.01s(cpu)
        *  Thank you very much for using Q-Chem.  Have a nice day.  *
 Q-Chem 5.3, Q-Chem, Inc., Pleasanton, CA (2020)
 Q-Chem 5.3.1 for Intel X86 EM64T Linux

User input:
--------------------------------------------------------------

$molecule
read
$end

$rem
BASIS  =  6-31+G*
JOB_TYPE  =  Frequency
METHOD  =  B3LYP
SCF_GUESS = Read
VIBMAN_PRINT = 6
$end

--------------------------------------------------------------

   19    -843.6799126314      8.82e-09  Convergence criterion met
 Total energy in the final basis set =     -843.6799126314
 Frequency:         8.50                  28.73                  77.18
 Force Cnst:      0.0003                 0.0043                 0.0153
 Red. Mass:       6.2596                 8.9176                 4.3674
 IR Intens:        0.778                  1.965                  0.943
 Frequency:       100.95                 117.60                 183.92
 Force Cnst:      0.0315                 0.0415                 0.0835
 Red. Mass:       5.2414                 5.0969                 4.1884
 IR Intens:        0.212                  0.045                  1.384
 Frequency:       198.22                 218.90                 265.76
 Force Cnst:      0.1607                 0.1078                 0.1878
 Red. Mass:       6.9431                 3.8180                 4.5132
 IR Intens:        0.116                  8.025                  0.007
 Frequency:       296.85                 366.12                 409.66
 Force Cnst:      0.1989                 0.4055                 0.2716
 Red. Mass:       3.8320                 5.1343                 2.7468
 IR Intens:        0.013                  0.630                  3.837
 Frequency:       418.88                 421.18                 454.66
 Force Cnst:      0.6402                 0.3911                 0.5939
 Red. Mass:       6.1930                 3.7416                 4.8762
 IR Intens:        0.556                  0.640                  3.179
 Frequency:       479.77                 503.09                 517.46
 Force Cnst:      0.7220                 0.5564                 0.6037
 Red. Mass:       5.3235                 3.7311                 3.8265
 IR Intens:        2.297                  1.273                  0.351
 Frequency:       522.32                 543.30                 549.75
 Force Cnst:      0.8496                 0.7161                 0.5405
 Red. Mass:       5.2855                 4.1173                 3.0354
 IR Intens:        1.999                 11.438                  0.781
 Frequency:       579.23                 590.88                 595.92
 Force Cnst:      0.6042                 0.9584                 0.8363
 Red. Mass:       3.0567                 4.6591                 3.9971
 IR Intens:       48.491                 10.346                  8.292
 Frequency:       637.36                 690.04                 693.80
 Force Cnst:      0.4693                 1.1525                 0.9943
 Red. Mass:       1.9606                 4.1080                 3.5060
 IR Intens:       53.881                  6.986                 53.432
 Frequency:       704.59                 718.22                 764.33
 Force Cnst:      1.9823                 0.8787                 0.4867
 Red. Mass:       6.7771                 2.8911                 1.4142
 IR Intens:        0.427                 25.694                 10.929
 Frequency:       771.30                 784.51                 799.89
 Force Cnst:      1.9063                 0.9736                 1.7427
 Red. Mass:       5.4385                 2.6851                 4.6228
 IR Intens:        3.539                  0.723                 11.872
 Frequency:       811.08                 831.04                 832.18
 Force Cnst:      0.5831                 1.6713                 0.7177
 Red. Mass:       1.5045                 4.1073                 1.7589
 IR Intens:        0.667                  6.596                  4.907
 Frequency:       862.65                 881.00                 913.44
 Force Cnst:      0.7425                 2.4030                 0.7939
 Red. Mass:       1.6934                 5.2547                 1.6149
 IR Intens:      105.562                  7.026                  4.556
 Frequency:       917.30                 954.89                 970.98
 Force Cnst:      1.5546                 0.8104                 0.8094
 Red. Mass:       3.1357                 1.5085                 1.4571
 IR Intens:        6.417                  1.702                  6.347
 Frequency:       980.01                 981.49                 990.79
 Force Cnst:      0.8839                 0.7639                 0.8385
 Red. Mass:       1.5621                 1.3459                 1.4498
 IR Intens:        9.014                  0.265                  0.160
 Frequency:       993.62                1071.90                1118.45
 Force Cnst:      2.0730                 2.4939                 1.4302
 Red. Mass:       3.5637                 3.6840                 1.9405
 IR Intens:        1.958                  0.136                  8.214
 Frequency:      1129.74                1156.49                1175.98
 Force Cnst:      1.7841                 1.4427                 1.0730
 Red. Mass:       2.3725                 1.8308                 1.3169
 IR Intens:        2.056                204.032                  0.559
 Frequency:      1190.35                1206.58                1214.56
 Force Cnst:      1.1770                 1.3267                 1.1714
 Red. Mass:       1.4099                 1.5467                 1.3478
 IR Intens:        3.296                  0.582                 13.751
 Frequency:      1246.73                1254.63                1268.80
 Force Cnst:      1.9476                 1.2404                 2.6413
 Red. Mass:       2.1267                 1.3375                 2.7847
 IR Intens:       10.427                 57.686                  0.580
 Frequency:      1274.27                1278.51                1308.03
 Force Cnst:      1.6757                 1.7281                 1.7206
 Red. Mass:       1.7515                 1.7943                 1.7069
 IR Intens:        0.365                  2.195                  7.266
 Frequency:      1350.34                1359.71                1377.39
 Force Cnst:      3.0022                 3.4861                 3.0422
 Red. Mass:       2.7944                 3.2003                 2.7216
 IR Intens:       36.809                  5.124                 48.989
 Frequency:      1410.44                1420.75                1444.57
 Force Cnst:      6.4339                 5.7492                 3.4263
 Red. Mass:       5.4893                 4.8342                 2.7868
 IR Intens:        4.002                  2.912                  1.101
 Frequency:      1453.08                1471.07                1492.08
 Force Cnst:      2.3722                 3.2139                 3.4392
 Red. Mass:       1.9069                 2.5207                 2.6219
 IR Intens:        2.762                  5.638                  5.829
 Frequency:      1501.58                1531.58                1554.29
 Force Cnst:      1.6791                 5.0755                 4.8581
 Red. Mass:       1.2640                 3.6724                 3.4131
 IR Intens:        5.722                  8.802                  8.993
 Frequency:      1595.12                1631.58                1640.55
 Force Cnst:      6.6300                 9.9139                 9.7034
 Red. Mass:       4.4226                 6.3209                 6.1192
 IR Intens:        0.310                  6.780                  2.936
 Frequency:      1658.01                1677.72                1816.12
 Force Cnst:      9.4531                11.4786                18.3420
 Red. Mass:       5.8365                 6.9215                 9.4386
 IR Intens:        4.938                  0.057                368.481
 Frequency:      3061.07                3106.52                3175.77
 Force Cnst:      5.8466                 6.2741                 6.4539
 Red. Mass:       1.0590                 1.1034                 1.0861
 IR Intens:        7.465                  3.742                  1.383
 Frequency:      3177.72                3180.34                3182.98
 Force Cnst:      6.4654                 6.4819                 6.4981
 Red. Mass:       1.0867                 1.0877                 1.0886
 IR Intens:        0.066                  5.056                 10.540
 Frequency:      3184.76                3194.94                3204.72
 Force Cnst:      6.5148                 6.5892                 6.6304
 Red. Mass:       1.0902                 1.0956                 1.0957
 IR Intens:       15.772                 36.734                 40.435
 Frequency:      3208.41                3209.63                3678.15
 Force Cnst:      6.6282                 6.6337                 8.4834
 Red. Mass:       1.0929                 1.0929                 1.0643
 IR Intens:       18.457                 17.492                 73.327

 STANDARD THERMODYNAMIC QUANTITIES AT   298.15 K  AND     1.00 ATM

   This Molecule has  0 Imaginary Frequencies
   Zero point vibrational energy:      156.937 kcal/mol

   Atom    1 Element C  Has Mass   12.00000
   Atom    2 Element C  Has Mass   12.00000
   Atom    3 Element C  Has Mass   12.00000
   Atom    4 Element C  Has Mass   12.00000
   Atom    5 Element C  Has Mass   12.00000
   Atom    6 Element C  Has Mass   12.00000
   Atom    7 Element C  Has Mass   12.00000
   Atom    8 Element C  Has Mass   12.00000
   Atom    9 Element C  Has Mass   12.00000
   Atom   10 Element C  Has Mass   12.00000
   Atom   11 Element C  Has Mass   12.00000
   Atom   12 Element C  Has Mass   12.00000
   Atom   13 Element C  Has Mass   12.00000
   Atom   14 Element C  Has Mass   12.00000
   Atom   15 Element C  Has Mass   12.00000
   Atom   16 Element C  Has Mass   12.00000
   Atom   17 Element C  Has Mass   12.00000
   Atom   18 Element C  Has Mass   12.00000
   Atom   19 Element O  Has Mass   15.99491
   Atom   20 Element O  Has Mass   15.99491
   Atom   21 Element H  Has Mass    1.00783
   Atom   22 Element H  Has Mass    1.00783
   Atom   23 Element H  Has Mass    1.00783
   Atom   24 Element H  Has Mass    1.00783
   Atom   25 Element H  Has Mass    1.00783
   Atom   26 Element H  Has Mass    1.00783
   Atom   27 Element H  Has Mass    1.00783
   Atom   28 Element H  Has Mass    1.00783
   Atom   29 Element H  Has Mass    1.00783
   Atom   30 Element H  Has Mass    1.00783
   Atom   31 Element H  Has Mass    1.00783
   Atom   32 Element H  Has Mass    1.00783
   Molecular Mass:   260.083780 amu
   Principal axes and moments of inertia in amu*Bohr^2:
                             1           2           3
    Eigenvalues --     2209.60305  8491.96851 10374.28939
          X               1.00000    -0.00007    -0.00110
          Y               0.00007     1.00000     0.00278
          Z               0.00110    -0.00278     1.00000
   Rotational Symmetry Number is   1
   The Molecule is an Asymmetric Top
   Translational Enthalpy:        0.889 kcal/mol
   Rotational Enthalpy:           0.889 kcal/mol
   Vibrational Enthalpy:        164.322 kcal/mol
   gas constant (RT):             0.592 kcal/mol
   Translational Entropy:        42.567  cal/mol.K
   Rotational Entropy:           33.631  cal/mol.K
   Vibrational Entropy:          48.994  cal/mol.K

   Total Enthalpy:              166.692 kcal/mol
   Total Entropy:               125.192  cal/mol.K

        *  Thank you very much for using Q-Chem.  Have a nice day.  *
 Q-Chem 5.3, Q-Chem, Inc., Pleasanton, CA (2020)
 Q-Chem 5.3.1 for Intel X86 EM64T Linux

User input:
--------------------------------------------------------------

$molecule
read
$end

$rem
BASIS  =  6-31+G*
CIS_N_ROOTS  =  10
CIS_STATE_DERIVATIVE  =  1
CIS_TRIPLETS  =  0
EXCHANGE  =  B3LYP
GUI  =  2
JOB_TYPE  =  Force
SCF_GUESS = Read
$end
--------------------------------------------------------------

             Standard Nuclear Orientation (Angstroms)
    I     Atom           X                Y                Z
 ----------------------------------------------------------------
    1      C      -0.3112005737    -1.7755123448     0.0438120447
    2      C      -1.4226003936    -2.6858260147    -0.0208651020
    3      C      -0.5631929668    -0.3689483908     0.0508672270
    4      C      -1.9115372266     0.1040098971     0.0011853032
    5      C      -2.9981292005    -0.8242587528    -0.0625742050
    6      C      -2.7061387465    -2.2324483195    -0.0729420213
    7      C      -2.1834580462     1.5059152018     0.0169977109
    8      C      -3.5162721333     1.9510062603    -0.0323999188
    9      C      -4.5685883984     1.0384577382    -0.0964622615
   10      C      -4.3140443005    -0.3338782560    -0.1109349933
   11      C       0.5272995072     0.5581967593     0.1097785937
   12      C       0.2133165987     1.9638717502     0.1296992007
   13      C      -1.0739938301     2.4133025904     0.0863117867
   14      C       1.0161092212    -2.2211525327     0.1044458464
   15      C       2.0727859954    -1.3150048252     0.1619246950
   16      C       1.8560701881     0.0663341303     0.1552774503
   17      C       3.0205613547     1.0506751507     0.2255832811
   18      C       4.3782171672     0.4200078180     0.0005315040
   19      O       4.7020443884     0.3678571777    -1.3172158665
   20      O       5.1162847968    -0.0005613641     0.8661804121
   21      H      -1.2150919437    -3.7536009156    -0.0267507234
   22      H      -3.5364750138    -2.9334188383    -0.1213273883
   23      H      -3.7192353017     3.0195460491    -0.0199964949
   24      H      -5.5939327531     1.3973418961    -0.1345010270
   25      H      -5.1404513348    -1.0396429902    -0.1589283691
   26      H       1.0184349995     2.6892972202     0.1873674463
   27      H      -1.2780731944     3.4816803541     0.1045893289
   28      H       1.2213122497    -3.2891770101     0.1082649305
   29      H       3.0858840401    -1.7019700868     0.2219589692
   30      H       3.0530436844     1.5267415559     1.2129199545
   31      H       2.8900628541     1.8371579866    -0.5247446148
   32      H       5.5766629354    -0.0608088890    -1.3819852271
 ----------------------------------------------------------------

    2    -843.6799126302      9.75e-09  Convergence criterion met
 Total energy in the final basis set =     -843.6799126302

         TDDFT/TDA Excitation Energies
 ---------------------------------------------------

 Excited state   1: excitation energy (eV) =    3.7182
 Total energy for state  1:                  -843.54327281 au
    Multiplicity: Singlet
    Trans. Mom.: -0.0203 X   0.0389 Y  -0.0012 Z
    Strength   :     0.0001749926
    D(   67) --> V(    1) amplitude = -0.6808
    D(   68) --> V(    2) amplitude =  0.7288

 Excited state   2: excitation energy (eV) =    3.7756
 Total energy for state  2:                  -843.54116130 au
    Multiplicity: Singlet
    Trans. Mom.: -1.9589 X   0.5473 Y  -0.0755 Z
    Strength   :     0.3831890467
    D(   67) --> V(    2) amplitude =  0.3622
    D(   68) --> V(    1) amplitude =  0.9048

 Excited state   3: excitation energy (eV) =    4.2979
 Total energy for state  3:                  -843.52196635 au
    Multiplicity: Singlet
    Trans. Mom.:  0.1910 X  -0.1013 Y   0.0080 Z
    Strength   :     0.0049306144
    D(   66) --> V(    1) amplitude = -0.3246
    D(   68) --> V(    3) amplitude =  0.9333

 Excited state   4: excitation energy (eV) =    4.5916
 Total energy for state  4:                  -843.51117503 au
    Multiplicity: Singlet
    Trans. Mom.:  0.0359 X   0.1901 Y  -0.0368 Z
    Strength   :     0.0043624658
    D(   68) --> V(    4) amplitude =  0.9722

 Excited state   5: excitation energy (eV) =    4.6081
 Total energy for state  5:                  -843.51056881 au
    Multiplicity: Singlet
    Trans. Mom.: -0.0503 X  -0.0276 Y  -0.0057 Z
    Strength   :     0.0003747337
    D(   66) --> V(    1) amplitude =  0.9272
    D(   68) --> V(    3) amplitude =  0.3132

 Excited state   6: excitation energy (eV) =    4.7570
 Total energy for state  6:                  -843.50509792 au
    Multiplicity: Singlet
    Trans. Mom.:  0.6965 X   1.5807 Y   0.0570 Z
    Strength   :     0.3481332651
    D(   65) --> V(    3) amplitude =  0.2474
    D(   66) --> V(    6) amplitude =  0.2271
    D(   67) --> V(    1) amplitude =  0.6561
    D(   68) --> V(    2) amplitude =  0.6061

 Excited state   7: excitation energy (eV) =    4.9167
 Total energy for state  7:                  -843.49922792 au
    Multiplicity: Singlet
    Trans. Mom.:  0.0432 X   0.2077 Y  -0.0072 Z
    Strength   :     0.0054300257
    D(   65) --> V(    1) amplitude = -0.6106
    D(   68) --> V(    6) amplitude =  0.7517

 Excited state   8: excitation energy (eV) =    4.9986
 Total energy for state  8:                  -843.49621685 au
    Multiplicity: Singlet
    Trans. Mom.: -0.0057 X   0.0954 Y   0.1062 Z
    Strength   :     0.0025007884
    D(   68) --> V(    5) amplitude =  0.9210
    D(   68) --> V(    7) amplitude = -0.3421

 Excited state   9: excitation energy (eV) =    5.1763
 Total energy for state  9:                  -843.48968554 au
    Multiplicity: Singlet
    Trans. Mom.: -0.1001 X  -0.1639 Y   0.0031 Z
    Strength   :     0.0046772480
    D(   66) --> V(    2) amplitude = -0.6156
    D(   67) --> V(    3) amplitude =  0.7330

 Excited state  10: excitation energy (eV) =    5.1837
 Total energy for state 10:                  -843.48941614 au
    Multiplicity: Singlet
    Trans. Mom.: -0.0287 X  -0.0935 Y  -0.0576 Z
    Strength   :     0.0016360556
    D(   68) --> V(    5) amplitude = -0.3267
    D(   68) --> V(    7) amplitude = -0.9009

 ---------------------------------------------------

                    Orbital Energies (a.u.)
 --------------------------------------------------------------

 Alpha MOs
 -- Occupied --
-19.2183 -19.1627 -10.3411 -10.2212 -10.2210 -10.2144 -10.2124 -10.2116
-10.2115 -10.2109 -10.2104 -10.2065 -10.2057 -10.2043 -10.2042 -10.2036
-10.2035 -10.2033 -10.2033 -10.2027  -1.1246  -1.0347  -0.9033  -0.8653
 -0.8423  -0.8167  -0.7922  -0.7641  -0.7549  -0.7388  -0.7125  -0.6463
 -0.6395  -0.6358  -0.6236  -0.6071  -0.5568  -0.5324  -0.5266  -0.5225
 -0.5052  -0.5001  -0.4872  -0.4837  -0.4549  -0.4521  -0.4433  -0.4419
 -0.4387  -0.4223  -0.4160  -0.4103  -0.4078  -0.4061  -0.3974  -0.3782
 -0.3725  -0.3680  -0.3504  -0.3407  -0.3393  -0.3296  -0.3062  -0.2947
 -0.2819  -0.2660  -0.2421  -0.2084

          Ground-State Mulliken Net Atomic Charges

     Atom                 Charge (a.u.)
  ----------------------------------------
      1 C                     0.732382
      2 C                    -0.182899
      3 C                    -0.319482
      4 C                    -0.097919
      5 C                     0.341225
      6 C                    -0.182207
      7 C                     0.269531
      8 C                    -0.245233
      9 C                    -0.476324
     10 C                    -0.249501
     11 C                     0.415651
     12 C                    -0.461238
     13 C                    -0.384276
     14 C                    -0.583138
     15 C                    -1.053596
     16 C                     1.259760
     17 C                    -0.518334
     18 C                    -0.002478
     19 O                    -0.523226
     20 O                    -0.387315
     21 H                     0.184387
     22 H                     0.184851
     23 H                     0.183407
     24 H                     0.182534
     25 H                     0.184526
     26 H                     0.180616
     27 H                     0.183822
     28 H                     0.188035
     29 H                     0.192558
     30 H                     0.258234
     31 H                     0.235833
     32 H                     0.489815
  ----------------------------------------
  Sum of atomic charges =     0.000000

                    Cartesian Multipole Moments
 -----------------------------------------------------------------
    Charge (ESU x 10^10)
                -0.0000
    Dipole Moment (Debye)
         X      -1.2728      Y       0.4210      Z      -1.2190
       Tot       1.8120
    Quadrupole Moments (Debye-Ang)
        XX    -108.7770     XY       0.7559     YY    -101.6685
        XZ      -8.6934     YZ       1.8722     ZZ    -124.1835

 Total job time:  1420.97s(wall), 1417.50s(cpu)
        *  Thank you very much for using Q-Chem.  Have a nice day.  *
