 Q-Chem 5.3, Q-Chem, Inc., Pleasanton, CA (2020)
 Q-Chem 5.3.1 for Intel X86 EM64T Linux

User input:
--------------------------------------------------------------
$molecule
0 1
C    0.3106360   23.5093081   10.8550679
C   -2.1504200   23.4700371   10.8549345
C   -0.9218899   22.7595710   10.8550100
C   -0.9438555   21.3616992   10.8551621
H   -0.0034608   20.8154609   10.8550349
C   -2.1504200   20.6716729   10.8552647
H   -2.1504200   19.5849015   10.8555696
C   -4.6114760   24.8609766   10.8550680
C   -2.1504200   24.9002475   10.8549346
C   -3.3789501   25.6107136   10.8550101
C   -3.3569846   27.0085854   10.8551621
H   -4.2973792   27.5548238   10.8550347
C   -2.1504200   27.6986117   10.8552647
H   -2.1504200   28.7853832   10.8555694
C   -4.6114760   23.5093081   10.8550679
C   -3.3789501   22.7595710   10.8550099
C   -3.3569846   21.3616992   10.8551618
H   -4.2973792   20.8154608   10.8550345
C    0.3106360   24.8609765   10.8550679
C   -0.9218899   25.6107136   10.8550101
C   -0.9438555   27.0085854   10.8551620
H   -0.0034608   27.5548238   10.8550346
H    1.2480363   22.9584360   10.8551559
H   -5.5488763   25.4118486   10.8551561
H   -5.5488763   22.9584360   10.8551559
H    1.2480363   25.4118486   10.8551559
$end

$rem
BASIS  =  6-31+G*
CIS_N_ROOTS  =  11
CIS_STATE_DERIVATIVE  =  2
CIS_TRIPLETS  =  0
EXCHANGE  =  B3LYP
JOB_TYPE  =  Force
$end
--------------------------------------------------------------

             Standard Nuclear Orientation (Angstroms)
    I     Atom           X                Y                Z
 ----------------------------------------------------------------
    1      C      -0.6758342218    -2.4610560074    -0.0000269217
    2      C      -0.7151052075     0.0000000000    -0.0001603153
    3      C      -1.4255713147    -1.2285301031    -0.0000848100
    4      C      -2.8234431145    -1.2065644950     0.0000673062
    5      H      -3.3696814200    -2.1469591918    -0.0000598897
    6      C      -3.5134694075     0.0000000000     0.0001699171
    7      H      -4.6002408075     0.0000000000     0.0004748297
    8      C       0.6758342218     2.4610560074    -0.0000269217
    9      C       0.7151052075     0.0000000072    -0.0001603153
   10      C       1.4255713147     1.2285301031    -0.0000848100
   11      C       2.8234431145     1.2065644950     0.0000673062
   12      H       3.3696814200     2.1469591918    -0.0000598897
   13      C       3.5134694075    -0.0000000090     0.0001699171
   14      H       4.6002408075    -0.0000000153     0.0004748297
   15      C      -0.6758342218     2.4610560074    -0.0000269217
   16      C      -1.4255713147     1.2285301031    -0.0000848100
   17      C      -2.8234431145     1.2065644950     0.0000673062
   18      H      -3.3696814200     2.1469591918    -0.0000598897
   19      C       0.6758342218    -2.4610560074    -0.0000269217
   20      C       1.4255713147    -1.2285301031    -0.0000848100
   21      C       2.8234431145    -1.2065644950     0.0000673062
   22      H       3.3696814200    -2.1469591918    -0.0000598897
   23      H      -1.2267063272    -3.3984563042     0.0000610825
   24      H       1.2267063272     3.3984563042     0.0000610825
   25      H      -1.2267063272     3.3984563042     0.0000610825
   26      H       1.2267063272    -3.3984563042     0.0000610825
 ----------------------------------------------------------------

   13    -615.7879916190      4.81e-09  Convergence criterion met
 Total energy in the final basis set =     -615.7879916190

         TDDFT/TDA Excitation Energies
 ---------------------------------------------------

 Excited state   1: excitation energy (eV) =    3.8243
 Total energy for state  1:                  -615.64745200 au
    Multiplicity: Singlet
    Trans. Mom.: -0.0000 X   0.0573 Y  -0.0000 Z
    Strength   :     0.0003077495
    D(   52) --> V(    1) amplitude = -0.6761
    D(   53) --> V(    2) amplitude =  0.7339

 Excited state   2: excitation energy (eV) =    3.9337
 Total energy for state  2:                  -615.64342952 au
    Multiplicity: Singlet
    Trans. Mom.: -1.8013 X   0.0000 Y   0.0000 Z
    Strength   :     0.3127025911
    D(   52) --> V(    2) amplitude =  0.3910
    D(   53) --> V(    1) amplitude =  0.8982

 Excited state   3: excitation energy (eV) =    4.3829
 Total energy for state  3:                  -615.62692199 au
    Multiplicity: Singlet
    Trans. Mom.:  0.0000 X  -0.0000 Y  -0.0000 Z
    Strength   :     0.0000000000
    D(   51) --> V(    1) amplitude = -0.2839
    D(   53) --> V(    3) amplitude =  0.9548

 Excited state   4: excitation energy (eV) =    4.7540
 Total energy for state  4:                  -615.61328657 au
    Multiplicity: Singlet
    Trans. Mom.: -0.0000 X   0.0000 Y  -0.0000 Z
    Strength   :     0.0000000000
    D(   51) --> V(    1) amplitude =  0.9479
    D(   53) --> V(    3) amplitude =  0.2767

 Excited state   5: excitation energy (eV) =    4.8673
 Total energy for state  5:                  -615.60912006 au
    Multiplicity: Singlet
    Trans. Mom.:  0.0000 X   1.6688 Y  -0.0000 Z
    Strength   :     0.3320797907
    D(   50) --> V(    3) amplitude = -0.2602
    D(   51) --> V(    4) amplitude =  0.2440
    D(   52) --> V(    1) amplitude =  0.6726
    D(   53) --> V(    2) amplitude =  0.6162

 Excited state   6: excitation energy (eV) =    5.0005
 Total energy for state  6:                  -615.60422774 au
    Multiplicity: Singlet
    Trans. Mom.:  0.0000 X   0.0000 Y   0.0000 Z
    Strength   :     0.0000000003
    D(   50) --> V(    1) amplitude =  0.5421
    D(   53) --> V(    4) amplitude =  0.8215

 Excited state   7: excitation energy (eV) =    5.0733
 Total energy for state  7:                  -615.60155022 au
    Multiplicity: Singlet
    Trans. Mom.:  0.0000 X   0.0003 Y   0.0000 Z
    Strength   :     0.0000000118
    D(   53) --> V(    5) amplitude =  0.9934

 Excited state   8: excitation energy (eV) =    5.2184
 Total energy for state  8:                  -615.59621789 au
    Multiplicity: Singlet
    Trans. Mom.:  0.0000 X  -0.0000 Y  -0.0000 Z
    Strength   :     0.0000000001
    D(   51) --> V(    2) amplitude = -0.6141
    D(   52) --> V(    3) amplitude =  0.7696

 Excited state   9: excitation energy (eV) =    5.3406
 Total energy for state  9:                  -615.59172728 au
    Multiplicity: Singlet
    Trans. Mom.: -0.0000 X  -0.0000 Y   0.0000 Z
    Strength   :     0.0000000000
    D(   53) --> V(    6) amplitude =  0.9942

 Excited state  10: excitation energy (eV) =    5.3658
 Total energy for state 10:                  -615.59080081 au
    Multiplicity: Singlet
    Trans. Mom.:  0.0000 X   0.0000 Y  -0.0317 Z
    Strength   :     0.0001318330
    D(   53) --> V(    7) amplitude =  0.9926

 Excited state  11: excitation energy (eV) =    5.6574
 Total energy for state 11:                  -615.58008555 au
    Multiplicity: Singlet
    Trans. Mom.:  2.7079 X   0.0000 Y  -0.0000 Z
    Strength   :     1.0163241749
    D(   51) --> V(    3) amplitude =  0.3978
    D(   52) --> V(    2) amplitude =  0.8343
    D(   53) --> V(    1) amplitude = -0.2827

 ---------------------------------------------------

             Orbital Energies (a.u.) and Symmetries
 --------------------------------------------------------------

 Alpha MOs, Restricted
 -- Occupied --
-10.206 -10.206 -10.206 -10.206 -10.205 -10.204 -10.200 -10.200
  1 A1    1 B1    1 A2    1 B2    2 A1    2 B1    3 A1    2 B2
-10.199 -10.199 -10.199 -10.199 -10.198 -10.198 -10.198 -10.198
  2 A2    3 B1    4 B1    4 A1    3 A2    3 B2    5 A1    5 B1
 -0.901  -0.860  -0.838  -0.804  -0.773  -0.756  -0.737  -0.718
  6 A1    6 B1    4 B2    7 A1    4 A2    8 A1    7 B1    5 B2
 -0.635  -0.633  -0.630  -0.616  -0.551  -0.532  -0.524  -0.509
  9 A1    5 A2    8 B1    6 B2    9 B1   10 A1    6 A2    7 B2
 -0.497  -0.478  -0.448  -0.441  -0.440  -0.423  -0.419  -0.406
 11 A1   10 B1   12 A1    8 B2    7 A2   13 A1   14 A1   11 B1
 -0.406  -0.397  -0.373  -0.371  -0.370  -0.349  -0.336  -0.326
  9 B2    8 A2   12 B1   10 B2   13 B1   11 B2   15 A1    9 A2
 -0.305  -0.281  -0.263  -0.238  -0.207
 16 A1   10 A2   17 A1   14 B1   12 B2

 Beta MOs, Restricted
 -- Occupied --
-10.206 -10.206 -10.206 -10.206 -10.205 -10.204 -10.200 -10.200
  1 A1    1 B1    1 A2    1 B2    2 A1    2 B1    3 A1    2 B2
-10.199 -10.199 -10.199 -10.199 -10.198 -10.198 -10.198 -10.198
  2 A2    3 B1    4 B1    4 A1    3 A2    3 B2    5 A1    5 B1
 -0.901  -0.860  -0.838  -0.804  -0.773  -0.756  -0.737  -0.718
  6 A1    6 B1    4 B2    7 A1    4 A2    8 A1    7 B1    5 B2
 -0.635  -0.633  -0.630  -0.616  -0.551  -0.532  -0.524  -0.509
  9 A1    5 A2    8 B1    6 B2    9 B1   10 A1    6 A2    7 B2
 -0.497  -0.478  -0.448  -0.441  -0.440  -0.423  -0.419  -0.406
 11 A1   10 B1   12 A1    8 B2    7 A2   13 A1   14 A1   11 B1
 -0.406  -0.397  -0.373  -0.371  -0.370  -0.349  -0.336  -0.326
  9 B2    8 A2   12 B1   10 B2   13 B1   11 B2   15 A1    9 A2
 -0.305  -0.281  -0.263  -0.238  -0.207
 16 A1   10 A2   17 A1   14 B1   12 B2

          Ground-State Mulliken Net Atomic Charges

     Atom                 Charge (a.u.)
  ----------------------------------------
      1 C                    -0.224022
      2 C                    -0.164343
      3 C                     0.233565
      4 C                    -0.038177
      5 H                     0.177592
      6 C                    -0.666962
      7 H                     0.176493
      8 C                    -0.224032
      9 C                    -0.164343
     10 C                     0.233552
     11 C                    -0.038253
     12 H                     0.177593
     13 C                    -0.666962
     14 H                     0.176493
     15 C                    -0.223805
     16 C                     0.233535
     17 C                    -0.038208
     18 H                     0.177592
     19 C                    -0.223794
     20 C                     0.233549
     21 C                    -0.038132
     22 H                     0.177592
     23 H                     0.178369
     24 H                     0.178369
     25 H                     0.178369
     26 H                     0.178369
  ----------------------------------------
  Sum of atomic charges =     0.000000

                    Cartesian Multipole Moments
 -----------------------------------------------------------------
    Charge (ESU x 10^10)
                 0.0000
    Dipole Moment (Debye)
         X      -0.0000      Y      -0.0000      Z       0.0002
       Tot       0.0002
    Quadrupole Moments (Debye-Ang)
        XX     -81.3774     XY       0.0000     YY     -81.3581
        XZ       0.0000     YZ       0.0000     ZZ     -99.7592

 Total job time:  708.50s(wall), 705.86s(cpu)
        *  Thank you very much for using Q-Chem.  Have a nice day.  *
