 Q-Chem 5.3, Q-Chem, Inc., Pleasanton, CA (2020)
 Q-Chem 5.3.1 for Intel X86 EM64T Linux

User input:
--------------------------------------------------------------
$molecule
0 1
C    0.3106360   23.5093081   10.8550679
C   -2.1504200   23.4700371   10.8549345
C   -0.9218899   22.7595710   10.8550100
C   -0.9438555   21.3616992   10.8551621
H   -0.0034608   20.8154609   10.8550349
C   -2.1504200   20.6716729   10.8552647
H   -2.1504200   19.5849015   10.8555696
C   -4.6114760   24.8609766   10.8550680
C   -2.1504200   24.9002475   10.8549346
C   -3.3789501   25.6107136   10.8550101
C   -3.3569846   27.0085854   10.8551621
H   -4.2973792   27.5548238   10.8550347
C   -2.1504200   27.6986117   10.8552647
H   -2.1504200   28.7853832   10.8555694
C   -4.6114760   23.5093081   10.8550679
C   -3.3789501   22.7595710   10.8550099
C   -3.3569846   21.3616992   10.8551618
H   -4.2973792   20.8154608   10.8550345
C    0.3106360   24.8609765   10.8550679
C   -0.9218899   25.6107136   10.8550101
C   -0.9438555   27.0085854   10.8551620
H   -0.0034608   27.5548238   10.8550346
H    1.2480363   22.9584360   10.8551559
H   -5.5488763   25.4118486   10.8551561
H   -5.5488763   22.9584360   10.8551559
H    1.2480363   25.4118486   10.8551559
$end

$rem
BASIS  =  6-31+G*
GUI  =  2
JOB_TYPE  =  Frequency
METHOD  =  B3LYP
VIBMAN_PRINT = 6
$end

--------------------------------------------------------------

             Standard Nuclear Orientation (Angstroms)
    I     Atom           X                Y                Z
 ----------------------------------------------------------------
    1      C      -0.6758342218    -2.4610560074    -0.0000269217
    2      C      -0.7151052075     0.0000000000    -0.0001603153
    3      C      -1.4255713147    -1.2285301031    -0.0000848100
    4      C      -2.8234431145    -1.2065644950     0.0000673062
    5      H      -3.3696814200    -2.1469591918    -0.0000598897
    6      C      -3.5134694075     0.0000000000     0.0001699171
    7      H      -4.6002408075     0.0000000000     0.0004748297
    8      C       0.6758342218     2.4610560074    -0.0000269217
    9      C       0.7151052075     0.0000000072    -0.0001603153
   10      C       1.4255713147     1.2285301031    -0.0000848100
   11      C       2.8234431145     1.2065644950     0.0000673062
   12      H       3.3696814200     2.1469591918    -0.0000598897
   13      C       3.5134694075    -0.0000000090     0.0001699171
   14      H       4.6002408075    -0.0000000153     0.0004748297
   15      C      -0.6758342218     2.4610560074    -0.0000269217
   16      C      -1.4255713147     1.2285301031    -0.0000848100
   17      C      -2.8234431145     1.2065644950     0.0000673062
   18      H      -3.3696814200     2.1469591918    -0.0000598897
   19      C       0.6758342218    -2.4610560074    -0.0000269217
   20      C       1.4255713147    -1.2285301031    -0.0000848100
   21      C       2.8234431145    -1.2065644950     0.0000673062
   22      H       3.3696814200    -2.1469591918    -0.0000598897
   23      H      -1.2267063272    -3.3984563042     0.0000610825
   24      H       1.2267063272     3.3984563042     0.0000610825
   25      H      -1.2267063272     3.3984563042     0.0000610825
   26      H       1.2267063272    -3.3984563042     0.0000610825
 ----------------------------------------------------------------

   13    -615.7879916151      4.75e-09  Convergence criterion met
 Total energy in the final basis set =     -615.7879916151

             Orbital Energies (a.u.) and Symmetries
 --------------------------------------------------------------

 Alpha MOs, Restricted
 -- Occupied --
-10.206 -10.206 -10.206 -10.206 -10.205 -10.204 -10.200 -10.200
  1 A1    1 B1    1 A2    1 B2    2 A1    2 B1    3 A1    2 B2
-10.199 -10.199 -10.199 -10.199 -10.198 -10.198 -10.198 -10.198
  2 A2    3 B1    4 B1    4 A1    3 A2    3 B2    5 A1    5 B1
 -0.901  -0.860  -0.838  -0.804  -0.773  -0.756  -0.737  -0.718
  6 A1    6 B1    4 B2    7 A1    4 A2    8 A1    7 B1    5 B2
 -0.635  -0.633  -0.630  -0.616  -0.551  -0.532  -0.524  -0.509
  9 A1    5 A2    8 B1    6 B2    9 B1   10 A1    6 A2    7 B2
 -0.497  -0.478  -0.448  -0.441  -0.440  -0.423  -0.419  -0.406
 11 A1   10 B1   12 A1    8 B2    7 A2   13 A1   14 A1   11 B1
 -0.406  -0.397  -0.373  -0.371  -0.370  -0.349  -0.336  -0.326
  9 B2    8 A2   12 B1   10 B2   13 B1   11 B2   15 A1    9 A2
 -0.305  -0.281  -0.263  -0.238  -0.207
 16 A1   10 A2   17 A1   14 B1   12 B2

 Beta MOs, Restricted
 -- Occupied --
-10.206 -10.206 -10.206 -10.206 -10.205 -10.204 -10.200 -10.200
  1 A1    1 B1    1 A2    1 B2    2 A1    2 B1    3 A1    2 B2
-10.199 -10.199 -10.199 -10.199 -10.198 -10.198 -10.198 -10.198
  2 A2    3 B1    4 B1    4 A1    3 A2    3 B2    5 A1    5 B1
 -0.901  -0.860  -0.838  -0.804  -0.773  -0.756  -0.737  -0.718
  6 A1    6 B1    4 B2    7 A1    4 A2    8 A1    7 B1    5 B2
 -0.635  -0.633  -0.630  -0.616  -0.551  -0.532  -0.524  -0.509
  9 A1    5 A2    8 B1    6 B2    9 B1   10 A1    6 A2    7 B2
 -0.497  -0.478  -0.448  -0.441  -0.440  -0.423  -0.419  -0.406
 11 A1   10 B1   12 A1    8 B2    7 A2   13 A1   14 A1   11 B1
 -0.406  -0.397  -0.373  -0.371  -0.370  -0.349  -0.336  -0.326
  9 B2    8 A2   12 B1   10 B2   13 B1   11 B2   15 A1    9 A2
 -0.305  -0.281  -0.263  -0.238  -0.207
 16 A1   10 A2   17 A1   14 B1   12 B2

          Ground-State Mulliken Net Atomic Charges

     Atom                 Charge (a.u.)
  ----------------------------------------
      1 C                    -0.224021
      2 C                    -0.164343
      3 C                     0.233565
      4 C                    -0.038177
      5 H                     0.177592
      6 C                    -0.666962
      7 H                     0.176493
      8 C                    -0.224032
      9 C                    -0.164343
     10 C                     0.233552
     11 C                    -0.038253
     12 H                     0.177593
     13 C                    -0.666962
     14 H                     0.176493
     15 C                    -0.223805
     16 C                     0.233535
     17 C                    -0.038208
     18 H                     0.177592
     19 C                    -0.223794
     20 C                     0.233549
     21 C                    -0.038132
     22 H                     0.177592
     23 H                     0.178369
     24 H                     0.178369
     25 H                     0.178369
     26 H                     0.178369
  ----------------------------------------
  Sum of atomic charges =     0.000000

                    Cartesian Multipole Moments
 -----------------------------------------------------------------
    Charge (ESU x 10^10)
                 0.0000
    Dipole Moment (Debye)
         X      -0.0000      Y      -0.0000      Z       0.0002
       Tot       0.0002
    Quadrupole Moments (Debye-Ang)
        XX     -81.3774     XY       0.0000     YY     -81.3581
        XZ       0.0000     YZ       0.0000     ZZ     -99.7592

 Frequency:        76.82                 127.06                 211.32
 Force Cnst:      0.0161                 0.0402                 0.1003
 Red. Mass:       4.6408                 4.2291                 3.8110
 IR Intens:        1.023                  0.000                  9.915
 Frequency:       242.42                 248.36                 353.40
 Force Cnst:      0.1200                 0.1642                 0.3344
 Red. Mass:       3.4651                 4.5173                 4.5449
 IR Intens:        0.000                  0.000                  1.731
 Frequency:       387.16                 413.97                 462.04
 Force Cnst:      0.3108                 0.8075                 0.8030
 Red. Mass:       3.5197                 7.9976                 6.3843
 IR Intens:        0.000                  0.000                  0.000
 Frequency:       493.61                 505.16                 506.24
 Force Cnst:      0.5200                 0.6724                 0.7404
 Red. Mass:       3.6225                 4.4723                 4.9036
 IR Intens:        2.361                  0.000                  2.829
 Frequency:       506.96                 532.84                 555.58
 Force Cnst:      0.5772                 0.4924                 1.2847
 Red. Mass:       3.8120                 2.9433                 7.0644
 IR Intens:        0.000                  0.000                  2.597
 Frequency:       578.05                 602.25                 685.40
 Force Cnst:      0.6747                 1.3696                 1.1761
 Red. Mass:       3.4271                 6.4088                 4.2491
 IR Intens:        0.000                  0.000                  0.000
 Frequency:       707.74                 716.02                 751.05
 Force Cnst:      2.0837                 0.8650                 1.7286
 Red. Mass:       7.0606                 2.8636                 5.2011
 IR Intens:        0.026                 41.850                  0.000
 Frequency:       753.83                 771.63                 813.21
 Force Cnst:      0.3921                 0.6323                 0.5409
 Red. Mass:       1.1711                 1.8025                 1.3882
 IR Intens:       16.170                  0.000                  0.000
 Frequency:       815.51                 816.42                 834.45
 Force Cnst:      1.0951                 2.2710                 1.8637
 Red. Mass:       2.7948                 5.7828                 4.5429
 IR Intens:        0.000                  0.000                  3.934
 Frequency:       859.03                 904.45                 919.12
 Force Cnst:      0.7931                 0.6701                 0.7281
 Red. Mass:       1.8242                 1.3904                 1.4629
 IR Intens:      121.466                  0.000                  0.000
 Frequency:       973.22                 981.64                 982.34
 Force Cnst:      0.7178                 0.7476                 0.7488
 Red. Mass:       1.2862                 1.3167                 1.3170
 IR Intens:        0.000                  2.094                  0.000
 Frequency:       987.04                 991.69                1023.12
 Force Cnst:      2.5549                 0.7730                 4.6417
 Red. Mass:       4.4510                 1.3341                 7.5261
 IR Intens:        0.001                  0.000                  1.824
 Frequency:      1106.58                1127.10                1128.80
 Force Cnst:      1.4897                 1.7821                 1.2463
 Red. Mass:       2.0648                 2.3810                 1.6601
 IR Intens:        0.000                  0.000                  9.156
 Frequency:      1181.27                1189.30                1210.00
 Force Cnst:      1.0563                 0.9850                 1.0791
 Red. Mass:       1.2848                 1.1820                 1.2510
 IR Intens:        0.000                  0.674                  0.000
 Frequency:      1219.43                1246.53                1277.18
 Force Cnst:      1.0542                 2.0451                 1.5105
 Red. Mass:       1.2032                 2.2338                 1.5717
 IR Intens:       14.956                  0.062                  0.000
 Frequency:      1277.45                1277.70                1363.55
 Force Cnst:      2.8694                 1.6636                 3.5985
 Red. Mass:       2.9844                 1.7296                 3.2849
 IR Intens:        0.000                  1.437                  0.000
 Frequency:      1389.47                1436.42                1456.78
 Force Cnst:      5.8631                 2.8333                 4.0895
 Red. Mass:       5.1544                 2.3307                 3.2706
 IR Intens:        4.402                  0.000                  0.000
 Frequency:      1457.90                1480.87                1481.83
 Force Cnst:      7.1602                 2.5423                 3.1200
 Red. Mass:       5.7177                 1.9676                 2.4116
 IR Intens:        0.000                  4.349                  3.317
 Frequency:      1494.59                1554.38                1555.83
 Force Cnst:      6.9227                 4.5357                 7.3226
 Red. Mass:       5.2599                 3.1863                 5.1344
 IR Intens:        5.411                  0.000                  2.638
 Frequency:      1631.09                1658.58                1666.36
 Force Cnst:      7.3769                12.8250                 9.7561
 Red. Mass:       4.7062                 7.9129                 5.9633
 IR Intens:        0.000                  0.000                  9.460
 Frequency:      1688.15                1707.88                3174.30
 Force Cnst:     10.7683                12.3363                 6.4466
 Red. Mass:       6.4132                 7.1783                 1.0859
 IR Intens:        0.848                  0.000                  2.300
 Frequency:      3175.02                3176.58                3177.82
 Force Cnst:      6.4508                 6.4573                 6.4608
 Red. Mass:       1.0861                 1.0861                 1.0859
 IR Intens:        0.000                  0.000                  2.042
 Frequency:      3183.49                3184.45                3195.30
 Force Cnst:      6.5132                 6.5138                 6.5962
 Red. Mass:       1.0908                 1.0902                 1.0965
 IR Intens:       25.594                  0.000                 81.640
 Frequency:      3195.31                3202.83                3203.38
 Force Cnst:      6.5968                 6.6256                 6.6266
 Red. Mass:       1.0966                 1.0962                 1.0960
 IR Intens:        0.002                 78.773                  0.000

 STANDARD THERMODYNAMIC QUANTITIES AT   298.15 K  AND     1.00 ATM

   This Molecule has  0 Imaginary Frequencies
   Zero point vibrational energy:      130.411 kcal/mol

   Atom    1 Element C  Has Mass   12.00000
   Atom    2 Element C  Has Mass   12.00000
   Atom    3 Element C  Has Mass   12.00000
   Atom    4 Element C  Has Mass   12.00000
   Atom    5 Element H  Has Mass    1.00783
   Atom    6 Element C  Has Mass   12.00000
   Atom    7 Element H  Has Mass    1.00783
   Atom    8 Element C  Has Mass   12.00000
   Atom    9 Element C  Has Mass   12.00000
   Atom   10 Element C  Has Mass   12.00000
   Atom   11 Element C  Has Mass   12.00000
   Atom   12 Element H  Has Mass    1.00783
   Atom   13 Element C  Has Mass   12.00000
   Atom   14 Element H  Has Mass    1.00783
   Atom   15 Element C  Has Mass   12.00000
   Atom   16 Element C  Has Mass   12.00000
   Atom   17 Element C  Has Mass   12.00000
   Atom   18 Element H  Has Mass    1.00783
   Atom   19 Element C  Has Mass   12.00000
   Atom   20 Element C  Has Mass   12.00000
   Atom   21 Element C  Has Mass   12.00000
   Atom   22 Element H  Has Mass    1.00783
   Atom   23 Element H  Has Mass    1.00783
   Atom   24 Element H  Has Mass    1.00783
   Atom   25 Element H  Has Mass    1.00783
   Atom   26 Element H  Has Mass    1.00783
   Molecular Mass:   202.078300 amu
   Principal axes and moments of inertia in amu*Bohr^2:
                             1           2           3
    Eigenvalues --     1779.07640  3232.37510  5011.45149
          X               1.00000     0.00000     0.00000
          Y              -0.00000     1.00000     0.00000
          Z              -0.00000    -0.00000     1.00000
   Rotational Symmetry Number is   2
   The Molecule is an Asymmetric Top
   Translational Enthalpy:        0.889 kcal/mol
   Rotational Enthalpy:           0.889 kcal/mol
   Vibrational Enthalpy:        135.043 kcal/mol
   gas constant (RT):             0.592 kcal/mol
   Translational Entropy:        41.815  cal/mol.K
   Rotational Entropy:           30.355  cal/mol.K
   Vibrational Entropy:          25.060  cal/mol.K

   Total Enthalpy:              137.413 kcal/mol
   Total Entropy:                97.230  cal/mol.K

 Total job time:  1943.95s(wall), 1937.66s(cpu)
        *  Thank you very much for using Q-Chem.  Have a nice day.  *
