 Q-Chem 5.3, Q-Chem, Inc., Pleasanton, CA (2020)
 Q-Chem 5.3.1 for Intel X86 EM64T Linux

User input:
--------------------------------------------------------------
$molecule
0 1
C   -0.6758342   -2.4610560   -0.0000269
C   -0.7151052    0.0000000   -0.0001603
C   -1.4255713   -1.2285301   -0.0000848
C   -2.8234431   -1.2065645    0.0000673
H   -3.3696814   -2.1469592   -0.0000599
C   -3.5134694    0.0000000    0.0001699
H   -4.6002408    0.0000000    0.0004748
C    0.6758342    2.4610560   -0.0000269
C    0.7151052    0.0000000   -0.0001603
C    1.4255713    1.2285301   -0.0000848
C    2.8234431    1.2065645    0.0000673
H    3.3696814    2.1469592   -0.0000599
C    3.5134694   -0.0000000    0.0001699
H    4.6002408   -0.0000000    0.0004748
C   -0.6758342    2.4610560   -0.0000269
C   -1.4255713    1.2285301   -0.0000848
C   -2.8234431    1.2065645    0.0000673
H   -3.3696814    2.1469592   -0.0000599
C    0.6758342   -2.4610560   -0.0000269
C    1.4255713   -1.2285301   -0.0000848
C    2.8234431   -1.2065645    0.0000673
H    3.3696814   -2.1469592   -0.0000599
H   -1.2267063   -3.3984563    0.0000611
H    1.2267063    3.3984563    0.0000611
H   -1.2267063    3.3984563    0.0000611
H    1.2267063   -3.3984563    0.0000611
$end

$rem
BASIS  =  6-31+G*
CIS_N_ROOTS  =  7
CIS_STATE_DERIV =  2
CIS_TRIPLETS  =  0
EXCHANGE  =  B3LYP
GUI  =  0
JOB_TYPE  =  Frequency
VIBMAN_PRINT = 4
$end
--------------------------------------------------------------

             Standard Nuclear Orientation (Angstroms)
    I     Atom           X                Y                Z
 ----------------------------------------------------------------
    1      C      -0.6758342000    -2.4610560000    -0.0000269377
    2      C      -0.7151052000    -0.0000000000    -0.0001603377
    3      C      -1.4255713000    -1.2285301000    -0.0000848377
    4      C      -2.8234431000    -1.2065645000     0.0000672623
    5      H      -3.3696814000    -2.1469592000    -0.0000599377
    6      C      -3.5134694000     0.0000000000     0.0001698623
    7      H      -4.6002408000     0.0000000000     0.0004747623
    8      C       0.6758342000     2.4610560000    -0.0000269377
    9      C       0.7151052000    -0.0000000000    -0.0001603377
   10      C       1.4255713000     1.2285301000    -0.0000848377
   11      C       2.8234431000     1.2065645000     0.0000672623
   12      H       3.3696814000     2.1469592000    -0.0000599377
   13      C       3.5134694000    -0.0000000000     0.0001698623
   14      H       4.6002408000     0.0000000000     0.0004747623
   15      C      -0.6758342000     2.4610560000    -0.0000269377
   16      C      -1.4255713000     1.2285301000    -0.0000848377
   17      C      -2.8234431000     1.2065645000     0.0000672623
   18      H      -3.3696814000     2.1469592000    -0.0000599377
   19      C       0.6758342000    -2.4610560000    -0.0000269377
   20      C       1.4255713000    -1.2285301000    -0.0000848377
   21      C       2.8234431000    -1.2065645000     0.0000672623
   22      H       3.3696814000    -2.1469592000    -0.0000599377
   23      H      -1.2267063000    -3.3984563000     0.0000610623
   24      H       1.2267063000     3.3984563000     0.0000610623
   25      H      -1.2267063000     3.3984563000     0.0000610623
   26      H       1.2267063000    -3.3984563000     0.0000610623
 ----------------------------------------------------------------

   13    -615.7913653260      3.92e-09  Convergence criterion met
 Total energy in the final basis set =     -615.7913653260

         TDDFT/TDA Excitation Energies
 ---------------------------------------------------

 Excited state   1: excitation energy (eV) =    3.8243
 Total energy for state  1:                  -615.65082580 au
    Multiplicity: Singlet
    Trans. Mom.:  0.0000 X   0.0577 Y  -0.0000 Z
    Strength   :     0.0003122229
    D(   52) --> V(    1) amplitude = -0.6760
    D(   53) --> V(    2) amplitude =  0.7340

 Excited state   2: excitation energy (eV) =    3.9337
 Total energy for state  2:                  -615.64680479 au
    Multiplicity: Singlet
    Trans. Mom.: -1.8014 X   0.0000 Y  -0.0000 Z
    Strength   :     0.3127225023
    D(   52) --> V(    2) amplitude =  0.3910
    D(   53) --> V(    1) amplitude =  0.8982

 Excited state   3: excitation energy (eV) =    4.3829
 Total energy for state  3:                  -615.63029720 au
    Multiplicity: Singlet
    Trans. Mom.:  0.0000 X  -0.0000 Y  -0.0000 Z
    Strength   :     0.0000000000
    D(   51) --> V(    1) amplitude = -0.2838
    D(   53) --> V(    3) amplitude =  0.9548

 Excited state   4: excitation energy (eV) =    4.7540
 Total energy for state  4:                  -615.61665968 au
    Multiplicity: Singlet
    Trans. Mom.: -0.0000 X   0.0000 Y  -0.0000 Z
    Strength   :     0.0000000000
    D(   51) --> V(    1) amplitude =  0.9479
    D(   53) --> V(    3) amplitude =  0.2766

 Excited state   5: excitation energy (eV) =    4.8673
 Total energy for state  5:                  -615.61249416 au
    Multiplicity: Singlet
    Trans. Mom.: -0.0000 X   1.6687 Y   0.0000 Z
    Strength   :     0.3320473076
    D(   50) --> V(    3) amplitude =  0.2602
    D(   51) --> V(    4) amplitude =  0.2440
    D(   52) --> V(    1) amplitude =  0.6727
    D(   53) --> V(    2) amplitude =  0.6161

 Excited state   6: excitation energy (eV) =    5.0004
 Total energy for state  6:                  -615.60760344 au
    Multiplicity: Singlet
    Trans. Mom.: -0.0000 X  -0.0000 Y   0.0000 Z
    Strength   :     0.0000000003
    D(   50) --> V(    1) amplitude = -0.5420
    D(   53) --> V(    4) amplitude =  0.8216

 Excited state   7: excitation energy (eV) =    5.2185
 Total energy for state  7:                  -615.59958950 au
    Multiplicity: Singlet
    Trans. Mom.: -0.0000 X   0.0000 Y  -0.0000 Z
    Strength   :     0.0000000001
    D(   51) --> V(    2) amplitude = -0.6142
    D(   52) --> V(    3) amplitude =  0.7696

 ---------------------------------------------------

             Orbital Energies (a.u.) and Symmetries
 --------------------------------------------------------------

 Alpha MOs, Restricted
 -- Occupied --
-10.206 -10.206 -10.206 -10.206 -10.205 -10.205 -10.200 -10.200
  1 A1    1 B1    1 A2    1 B2    2 A1    2 B1    3 A1    2 B2
-10.199 -10.199 -10.199 -10.199 -10.198 -10.198 -10.198 -10.198
  2 A2    3 B1    4 B1    4 A1    3 A2    3 B2    5 A1    5 B1
 -0.901  -0.860  -0.838  -0.805  -0.773  -0.756  -0.737  -0.718
  6 A1    6 B1    4 B2    7 A1    4 A2    8 A1    7 B1    5 B2
 -0.635  -0.633  -0.630  -0.616  -0.551  -0.532  -0.524  -0.509
  9 A1    5 A2    8 B1    6 B2    9 B1   10 A1    6 A2    7 B2
 -0.497  -0.478  -0.448  -0.441  -0.440  -0.423  -0.419  -0.406
 11 A1   10 B1   12 A1    8 B2    7 A2   13 A1   14 A1   11 B1
 -0.406  -0.397  -0.373  -0.371  -0.370  -0.349  -0.336  -0.326
  9 B2    8 A2   12 B1   10 B2   13 B1   11 B2   15 A1    9 A2
 -0.305  -0.281  -0.264  -0.239  -0.207
 16 A1   10 A2   17 A1   14 B1   12 B2

 Beta MOs, Restricted
 -- Occupied --
-10.206 -10.206 -10.206 -10.206 -10.205 -10.205 -10.200 -10.200
  1 A1    1 B1    1 A2    1 B2    2 A1    2 B1    3 A1    2 B2
-10.199 -10.199 -10.199 -10.199 -10.198 -10.198 -10.198 -10.198
  2 A2    3 B1    4 B1    4 A1    3 A2    3 B2    5 A1    5 B1
 -0.901  -0.860  -0.838  -0.805  -0.773  -0.756  -0.737  -0.718
  6 A1    6 B1    4 B2    7 A1    4 A2    8 A1    7 B1    5 B2
 -0.635  -0.633  -0.630  -0.616  -0.551  -0.532  -0.524  -0.509
  9 A1    5 A2    8 B1    6 B2    9 B1   10 A1    6 A2    7 B2
 -0.497  -0.478  -0.448  -0.441  -0.440  -0.423  -0.419  -0.406
 11 A1   10 B1   12 A1    8 B2    7 A2   13 A1   14 A1   11 B1
 -0.406  -0.397  -0.373  -0.371  -0.370  -0.349  -0.336  -0.326
  9 B2    8 A2   12 B1   10 B2   13 B1   11 B2   15 A1    9 A2
 -0.305  -0.281  -0.264  -0.239  -0.207
 16 A1   10 A2   17 A1   14 B1   12 B2

          Ground-State Mulliken Net Atomic Charges

     Atom                 Charge (a.u.)
  ----------------------------------------
      1 C                    -0.159420
      2 C                    -0.141808
      3 C                     0.225116
      4 C                    -0.128632
      5 H                     0.181993
      6 C                    -0.640739
      7 H                     0.180901
      8 C                    -0.159420
      9 C                    -0.141808
     10 C                     0.225116
     11 C                    -0.128632
     12 H                     0.181993
     13 C                    -0.640739
     14 H                     0.180901
     15 C                    -0.159420
     16 C                     0.225116
     17 C                    -0.128632
     18 H                     0.181993
     19 C                    -0.159420
     20 C                     0.225116
     21 C                    -0.128632
     22 H                     0.181993
     23 H                     0.181766
     24 H                     0.181766
     25 H                     0.181766
     26 H                     0.181766
  ----------------------------------------
  Sum of atomic charges =     0.000000

                    Cartesian Multipole Moments
 -----------------------------------------------------------------
    Charge (ESU x 10^10)
                 0.0000
    Dipole Moment (Debye)
         X       0.0000      Y       0.0000      Z       0.0002
       Tot       0.0002
    Quadrupole Moments (Debye-Ang)
        XX     -81.3395     XY       0.0000     YY     -81.3197
        XZ       0.0000     YZ       0.0000     ZZ     -99.7757

 Frequency:      -133.01                 -65.85                 113.05
 Force Cnst:      0.0482                 0.0121                 0.0348
 Red. Mass:       4.6218                 4.7498                 4.6278
 IR Intens:        0.000                  1.556                  0.000
 Frequency:       173.00                 192.63                 266.16
 Force Cnst:      0.0616                 0.0857                 0.1447
 Red. Mass:       3.4931                 3.9198                 3.4657
 IR Intens:        0.000                  9.606                  0.000
 Frequency:       333.48                 412.62                 422.31
 Force Cnst:      0.3208                 0.8068                 0.3897
 Red. Mass:       4.8962                 8.0427                 3.7089
 IR Intens:      178.755                  0.000                  0.000
 Frequency:       439.62                 458.41                 490.79
 Force Cnst:      0.8690                 0.4315                 0.5784
 Red. Mass:       7.6312                 3.4856                 4.0757
 IR Intens:        0.000                  0.025                  0.000
 Frequency:       491.01                 495.74                 509.37
 Force Cnst:      0.4626                 0.9151                 0.7574
 Red. Mass:       3.2567                 6.3197                 4.9543
 IR Intens:        0.034                184.907                 21.522
 Frequency:       519.04                 600.32                 616.15
 Force Cnst:      0.4586                 1.3618                 1.0703
 Red. Mass:       2.8892                 6.4135                 4.7851
 IR Intens:        0.000                  0.000                  0.000
 Frequency:       673.39                 699.62                 709.00
 Force Cnst:      0.6990                 2.0572                 0.5295
 Red. Mass:       2.6164                 7.1335                 1.7877
 IR Intens:       60.098                 23.782                  0.000
 Frequency:       718.05                 745.49                 758.86
 Force Cnst:      0.3780                 1.6926                 1.0487
 Red. Mass:       1.2443                 5.1692                 3.0908
 IR Intens:       12.665                  0.000                  0.000
 Frequency:       763.41                 806.47                 815.58
 Force Cnst:      0.4431                 1.7461                 2.2879
 Red. Mass:       1.2903                 4.5566                 5.8380
 IR Intens:        0.000                 98.919                  0.022
 Frequency:       816.12                 845.56                 859.15
 Force Cnst:      0.6796                 0.5588                 0.6551
 Red. Mass:       1.7319                 1.3265                 1.5063
 IR Intens:      129.643                  0.000                  0.000
 Frequency:       912.75                 917.64                 949.91
 Force Cnst:      0.6480                 0.6471                 0.7100
 Red. Mass:       1.3201                 1.3042                 1.3355
 IR Intens:        0.000                  0.000                  1.409
 Frequency:       950.52                 979.36                1016.52
 Force Cnst:      0.7166                 2.6495                 4.5750
 Red. Mass:       1.3461                 4.6883                 7.5146
 IR Intens:        0.000                 44.198                 11.816
 Frequency:      1089.33                1102.28                1128.29
 Force Cnst:      1.5672                 1.4857                 1.2480
 Red. Mass:       2.2415                 2.0754                 1.6639
 IR Intens:        0.000                  0.000                 11.363
 Frequency:      1178.32                1180.51                1192.11
 Force Cnst:      1.0832                 1.5248                 0.9833
 Red. Mass:       1.3242                 1.8570                 1.1743
 IR Intens:        0.000                  0.000                 77.000
 Frequency:      1218.48                1230.73                1256.47
 Force Cnst:      1.0429                 2.3231                 2.0002
 Red. Mass:       1.1922                 2.6030                 2.1504
 IR Intens:       67.339                158.631                  0.000
 Frequency:      1274.62                1293.78                1347.95
 Force Cnst:      1.7123                 2.4951                 2.1971
 Red. Mass:       1.7888                 2.5300                 2.0523
 IR Intens:        0.900                  0.000                  0.000
 Frequency:      1357.48                1369.78                1440.90
 Force Cnst:      3.7496                 3.9547                 1.8843
 Red. Mass:       3.4536                 3.5773                 1.5404
 IR Intens:        0.000                391.169                  0.000
 Frequency:      1454.75                1477.22                1487.62
 Force Cnst:     10.5756                 2.4628                 6.6877
 Red. Mass:       8.4816                 1.9155                 5.1291
 IR Intens:        0.000                 29.938                 44.758
 Frequency:      1493.12                1521.80                1536.58
 Force Cnst:      3.4877                 6.9881                 4.9463
 Red. Mass:       2.6552                 5.1214                 3.5557
 IR Intens:        1.155                 24.336                  0.000
 Frequency:      1563.80                1605.52                1656.00
 Force Cnst:      8.7079                 6.1497                 9.3647
 Red. Mass:       6.0436                 4.0492                 5.7960
 IR Intens:        0.000                  0.000                 35.115
 Frequency:      1656.03                1689.15                3174.07
 Force Cnst:      9.6744                11.6054                 6.4385
 Red. Mass:       5.9874                 6.9036                 1.0847
 IR Intens:       83.053                  0.000                 39.555
 Frequency:      3175.10                3177.95                3178.60
 Force Cnst:      6.4471                 6.4650                 6.4648
 Red. Mass:       1.0854                 1.0865                 1.0860
 IR Intens:        0.000                  0.000                  9.376
 Frequency:      3183.16                3185.51                3194.90
 Force Cnst:      6.5039                 6.5187                 6.5898
 Red. Mass:       1.0895                 1.0903                 1.0957
 IR Intens:       69.106                  0.000                 38.651
 Frequency:      3195.57                3203.83                3204.38
 Force Cnst:      6.5964                 6.6291                 6.6312
 Red. Mass:       1.0964                 1.0961                 1.0961
 IR Intens:        0.000                 80.428                  0.000

 STANDARD THERMODYNAMIC QUANTITIES AT   298.15 K  AND     1.00 ATM

   This Molecule has  2 Imaginary Frequencies
   Zero point vibrational energy:      127.442 kcal/mol

   Atom    1 Element C  Has Mass   12.00000
   Atom    2 Element C  Has Mass   12.00000
   Atom    3 Element C  Has Mass   12.00000
   Atom    4 Element C  Has Mass   12.00000
   Atom    5 Element H  Has Mass    1.00783
   Atom    6 Element C  Has Mass   12.00000
   Atom    7 Element H  Has Mass    1.00783
   Atom    8 Element C  Has Mass   12.00000
   Atom    9 Element C  Has Mass   12.00000
   Atom   10 Element C  Has Mass   12.00000
   Atom   11 Element C  Has Mass   12.00000
   Atom   12 Element H  Has Mass    1.00783
   Atom   13 Element C  Has Mass   12.00000
   Atom   14 Element H  Has Mass    1.00783
   Atom   15 Element C  Has Mass   12.00000
   Atom   16 Element C  Has Mass   12.00000
   Atom   17 Element C  Has Mass   12.00000
   Atom   18 Element H  Has Mass    1.00783
   Atom   19 Element C  Has Mass   12.00000
   Atom   20 Element C  Has Mass   12.00000
   Atom   21 Element C  Has Mass   12.00000
   Atom   22 Element H  Has Mass    1.00783
   Atom   23 Element H  Has Mass    1.00783
   Atom   24 Element H  Has Mass    1.00783
   Atom   25 Element H  Has Mass    1.00783
   Atom   26 Element H  Has Mass    1.00783
   Molecular Mass:   202.078300 amu
   Principal axes and moments of inertia in amu*Bohr^2:
                             1           2           3
    Eigenvalues --     1779.07640  3232.37507  5011.45145
          X               1.00000    -0.00000    -0.00000
          Y               0.00000     1.00000     0.00000
          Z               0.00000    -0.00000     1.00000
   Rotational Symmetry Number is   2
   The Molecule is an Asymmetric Top
   Translational Enthalpy:        0.889 kcal/mol
   Rotational Enthalpy:           0.889 kcal/mol
   Vibrational Enthalpy:        131.767 kcal/mol
   gas constant (RT):             0.592 kcal/mol
   Translational Entropy:        41.815  cal/mol.K
   Rotational Entropy:           30.355  cal/mol.K
   Vibrational Entropy:          22.478  cal/mol.K

   Total Enthalpy:              134.137 kcal/mol
   Total Entropy:                94.648  cal/mol.K

 Total job time:  5060.42s(wall), 5048.28s(cpu)
        *  Thank you very much for using Q-Chem.  Have a nice day.  *
